+ 1 /NodeList/1/DeviceList/1/$ns3::PointToPointNetDevice/TxQueue/Enqueue ns3::PppHeader (Point-to-Point Protocol: IP (0x0021)) ns3::Ipv4Header (tos 0x0 DSCP Default ECN Not-ECT ttl 64 id 0 protocol 6 offset (bytes) 0 flags [none] length: 56 192.168.1.2 > 192.168.1.1) ns3::TcpHeader (49153 > 8080 [SYN] Seq=0 Ack=0 Win=65535 ns3::TcpOptionTS(1000;0) ns3::TcpOptionWinScale(2) ns3::TcpOptionSackPermitted([sack_perm]) ns3::TcpOptionEnd(EOL))
- 1 /NodeList/1/DeviceList/1/$ns3::PointToPointNetDevice/TxQueue/Dequeue ns3::PppHeader (Point-to-Point Protocol: IP (0x0021)) ns3::Ipv4Header (tos 0x0 DSCP Default ECN Not-ECT ttl 64 id 0 protocol 6 offset (bytes) 0 flags [none] length: 56 192.168.1.2 > 192.168.1.1) ns3::TcpHeader (49153 > 8080 [SYN] Seq=0 Ack=0 Win=65535 ns3::TcpOptionTS(1000;0) ns3::TcpOptionWinScale(2) ns3::TcpOptionSackPermitted([sack_perm]) ns3::TcpOptionEnd(EOL))
r 1.00209 /NodeList/0/DeviceList/1/$ns3::PointToPointNetDevice/MacRx ns3::PppHeader (Point-to-Point Protocol: IP (0x0021)) ns3::Ipv4Header (tos 0x0 DSCP Default ECN Not-ECT ttl 64 id 0 protocol 6 offset (bytes) 0 flags [none] length: 56 192.168.1.2 > 192.168.1.1) ns3::TcpHeader (49153 > 8080 [SYN] Seq=0 Ack=0 Win=65535 ns3::TcpOptionTS(1000;0) ns3::TcpOptionWinScale(2) ns3::TcpOptionSackPermitted([sack_perm]) ns3::TcpOptionEnd(EOL))
+ 1.00209 /NodeList/0/DeviceList/1/$ns3::PointToPointNetDevice/TxQueue/Enqueue ns3::PppHeader (Point-to-Point Protocol: IP (0x0021)) ns3::Ipv4Header (tos 0x0 DSCP Default ECN Not-ECT ttl 64 id 0 protocol 6 offset (bytes) 0 flags [none] length: 56 192.168.1.1 > 192.168.1.2) ns3::TcpHeader (8080 > 49153 [SYN|ACK] Seq=0 Ack=1 Win=65535 ns3::TcpOptionTS(1002;1000) ns3::TcpOptionWinScale(2) ns3::TcpOptionSackPermitted([sack_perm]) ns3::TcpOptionEnd(EOL))
- 1.00209 /NodeList/0/DeviceList/1/$ns3::PointToPointNetDevice/TxQueue/Dequeue ns3::PppHeader (Point-to-Point Protocol: IP (0x0021)) ns3::Ipv4Header (tos 0x0 DSCP Default ECN Not-ECT ttl 64 id 0 protocol 6 offset (bytes) 0 flags [none] length: 56 192.168.1.1 > 192.168.1.2) ns3::TcpHeader (8080 > 49153 [SYN|ACK] Seq=0 Ack=1 Win=65535 ns3::TcpOptionTS(1002;1000) ns3::TcpOptionWinScale(2) ns3::TcpOptionSackPermitted([sack_perm]) ns3::TcpOptionEnd(EOL))
r 1.00419 /NodeList/1/DeviceList/1/$ns3::PointToPointNetDevice/MacRx ns3::PppHeader (Point-to-Point Protocol: IP (0x0021)) ns3::Ipv4Header (tos 0x0 DSCP Default ECN Not-ECT ttl 64 id 0 protocol 6 offset (bytes) 0 flags [none] length: 56 192.168.1.1 > 192.168.1.2) ns3::TcpHeader (8080 > 49153 [SYN|ACK] Seq=0 Ack=1 Win=65535 ns3::TcpOptionTS(1002;1000) ns3::TcpOptionWinScale(2) ns3::TcpOptionSackPermitted([sack_perm]) ns3::TcpOptionEnd(EOL))
+ 1.00419 /NodeList/1/DeviceList/1/$ns3::PointToPointNetDevice/TxQueue/Enqueue ns3::PppHeader (Point-to-Point Protocol: IP (0x0021)) ns3::Ipv4Header (tos 0x0 DSCP Default ECN Not-ECT ttl 64 id 1 protocol 6 offset (bytes) 0 flags [none] length: 52 192.168.1.2 > 192.168.1.1) ns3::TcpHeader (49153 > 8080 [ACK] Seq=1 Ack=1 Win=32768 ns3::TcpOptionTS(1004;1002) ns3::TcpOptionEnd(EOL))
- 1.00419 /NodeList/1/DeviceList/1/$ns3::PointToPointNetDevice/TxQueue/Dequeue ns3::PppHeader (Point-to-Point Protocol: IP (0x0021)) ns3::Ipv4Header (tos 0x0 DSCP Default ECN Not-ECT ttl 64 id 1 protocol 6 offset (bytes) 0 flags [none] length: 52 192.168.1.2 > 192.168.1.1) ns3::TcpHeader (49153 > 8080 [ACK] Seq=1 Ack=1 Win=32768 ns3::TcpOptionTS(1004;1002) ns3::TcpOptionEnd(EOL))
r 1.00627 /NodeList/0/DeviceList/1/$ns3::PointToPointNetDevice/MacRx ns3::PppHeader (Point-to-Point Protocol: IP (0x0021)) ns3::Ipv4Header (tos 0x0 DSCP Default ECN Not-ECT ttl 64 id 1 protocol 6 offset (bytes) 0 flags [none] length: 52 192.168.1.2 > 192.168.1.1) ns3::TcpHeader (49153 > 8080 [ACK] Seq=1 Ack=1 Win=32768 ns3::TcpOptionTS(1004;1002) ns3::TcpOptionEnd(EOL))
+ 1.40419 /NodeList/1/DeviceList/1/$ns3::PointToPointNetDevice/TxQueue/Enqueue ns3::PppHeader (Point-to-Point Protocol: IP (0x0021)) ns3::Ipv4Header (tos 0x0 DSCP Default ECN Not-ECT ttl 64 id 2 protocol 6 offset (bytes) 0 flags [none] length: 302 192.168.1.2 > 192.168.1.1) ns3::TcpHeader (49153 > 8080 [ACK] Seq=1 Ack=1 Win=32768 ns3::TcpOptionTS(1404;1002) ns3::TcpOptionEnd(EOL)) Payload (size=250)
- 1.40419 /NodeList/1/DeviceList/1/$ns3::PointToPointNetDevice/TxQueue/Dequeue ns3::PppHeader (Point-to-Point Protocol: IP (0x0021)) ns3::Ipv4Header (tos 0x0 DSCP Default ECN Not-ECT ttl 64 id 2 protocol 6 offset (bytes) 0 flags [none] length: 302 192.168.1.2 > 192.168.1.1) ns3::TcpHeader (49153 > 8080 [ACK] Seq=1 Ack=1 Win=32768 ns3::TcpOptionTS(1404;1002) ns3::TcpOptionEnd(EOL)) Payload (size=250)
r 1.40667 /NodeList/0/DeviceList/1/$ns3::PointToPointNetDevice/MacRx ns3::PppHeader (Point-to-Point Protocol: IP (0x0021)) ns3::Ipv4Header (tos 0x0 DSCP Default ECN Not-ECT ttl 64 id 2 protocol 6 offset (bytes) 0 flags [none] length: 302 192.168.1.2 > 192.168.1.1) ns3::TcpHeader (49153 > 8080 [ACK] Seq=1 Ack=1 Win=32768 ns3::TcpOptionTS(1404;1002) ns3::TcpOptionEnd(EOL)) Payload (size=250)
+ 1.40667 /NodeList/0/DeviceList/1/$ns3::PointToPointNetDevice/TxQueue/Enqueue ns3::PppHeader (Point-to-Point Protocol: IP (0x0021)) ns3::Ipv4Header (tos 0x0 DSCP Default ECN Not-ECT ttl 64 id 1 protocol 6 offset (bytes) 0 flags [none] length: 52 192.168.1.1 > 192.168.1.2) ns3::TcpHeader (8080 > 49153 [ACK] Seq=1 Ack=251 Win=32768 ns3::TcpOptionTS(1406;1404) ns3::TcpOptionEnd(EOL))
- 1.40667 /NodeList/0/DeviceList/1/$ns3::PointToPointNetDevice/TxQueue/Dequeue ns3::PppHeader (Point-to-Point Protocol: IP (0x0021)) ns3::Ipv4Header (tos 0x0 DSCP Default ECN Not-ECT ttl 64 id 1 protocol 6 offset (bytes) 0 flags [none] length: 52 192.168.1.1 > 192.168.1.2) ns3::TcpHeader (8080 > 49153 [ACK] Seq=1 Ack=251 Win=32768 ns3::TcpOptionTS(1406;1404) ns3::TcpOptionEnd(EOL))
r 1.40876 /NodeList/1/DeviceList/1/$ns3::PointToPointNetDevice/MacRx ns3::PppHeader (Point-to-Point Protocol: IP (0x0021)) ns3::Ipv4Header (tos 0x0 DSCP Default ECN Not-ECT ttl 64 id 1 protocol 6 offset (bytes) 0 flags [none] length: 52 192.168.1.1 > 192.168.1.2) ns3::TcpHeader (8080 > 49153 [ACK] Seq=1 Ack=251 Win=32768 ns3::TcpOptionTS(1406;1404) ns3::TcpOptionEnd(EOL))
+ 1.80419 /NodeList/1/DeviceList/1/$ns3::PointToPointNetDevice/TxQueue/Enqueue ns3::PppHeader (Point-to-Point Protocol: IP (0x0021)) ns3::Ipv4Header (tos 0x0 DSCP Default ECN Not-ECT ttl 64 id 3 protocol 6 offset (bytes) 0 flags [none] length: 302 192.168.1.2 > 192.168.1.1) ns3::TcpHeader (49153 > 8080 [ACK] Seq=251 Ack=1 Win=32768 ns3::TcpOptionTS(1804;1406) ns3::TcpOptionEnd(EOL)) Payload (size=250)
- 1.80419 /NodeList/1/DeviceList/1/$ns3::PointToPointNetDevice/TxQueue/Dequeue ns3::PppHeader (Point-to-Point Protocol: IP (0x0021)) ns3::Ipv4Header (tos 0x0 DSCP Default ECN Not-ECT ttl 64 id 3 protocol 6 offset (bytes) 0 flags [none] length: 302 192.168.1.2 > 192.168.1.1) ns3::TcpHeader (49153 > 8080 [ACK] Seq=251 Ack=1 Win=32768 ns3::TcpOptionTS(1804;1406) ns3::TcpOptionEnd(EOL)) Payload (size=250)
r 1.80667 /NodeList/0/DeviceList/1/$ns3::PointToPointNetDevice/MacRx ns3::PppHeader (Point-to-Point Protocol: IP (0x0021)) ns3::Ipv4Header (tos 0x0 DSCP Default ECN Not-ECT ttl 64 id 3 protocol 6 offset (bytes) 0 flags [none] length: 302 192.168.1.2 > 192.168.1.1) ns3::TcpHeader (49153 > 8080 [ACK] Seq=251 Ack=1 Win=32768 ns3::TcpOptionTS(1804;1406) ns3::TcpOptionEnd(EOL)) Payload (size=250)
+ 2.00667 /NodeList/0/DeviceList/1/$ns3::PointToPointNetDevice/TxQueue/Enqueue ns3::PppHeader (Point-to-Point Protocol: IP (0x0021)) ns3::Ipv4Header (tos 0x0 DSCP Default ECN Not-ECT ttl 64 id 2 protocol 6 offset (bytes) 0 flags [none] length: 52 192.168.1.1 > 192.168.1.2) ns3::TcpHeader (8080 > 49153 [ACK] Seq=1 Ack=501 Win=32768 ns3::TcpOptionTS(2006;1804) ns3::TcpOptionEnd(EOL))
- 2.00667 /NodeList/0/DeviceList/1/$ns3::PointToPointNetDevice/TxQueue/Dequeue ns3::PppHeader (Point-to-Point Protocol: IP (0x0021)) ns3::Ipv4Header (tos 0x0 DSCP Default ECN Not-ECT ttl 64 id 2 protocol 6 offset (bytes) 0 flags [none] length: 52 192.168.1.1 > 192.168.1.2) ns3::TcpHeader (8080 > 49153 [ACK] Seq=1 Ack=501 Win=32768 ns3::TcpOptionTS(2006;1804) ns3::TcpOptionEnd(EOL))
r 2.00876 /NodeList/1/DeviceList/1/$ns3::PointToPointNetDevice/MacRx ns3::PppHeader (Point-to-Point Protocol: IP (0x0021)) ns3::Ipv4Header (tos 0x0 DSCP Default ECN Not-ECT ttl 64 id 2 protocol 6 offset (bytes) 0 flags [none] length: 52 192.168.1.1 > 192.168.1.2) ns3::TcpHeader (8080 > 49153 [ACK] Seq=1 Ack=501 Win=32768 ns3::TcpOptionTS(2006;1804) ns3::TcpOptionEnd(EOL))
+ 2.20439 /NodeList/1/DeviceList/1/$ns3::PointToPointNetDevice/TxQueue/Enqueue ns3::PppHeader (Point-to-Point Protocol: IP (0x0021)) ns3::Ipv4Header (tos 0x0 DSCP Default ECN Not-ECT ttl 64 id 4 protocol 6 offset (bytes) 0 flags [none] length: 302 192.168.1.2 > 192.168.1.1) ns3::TcpHeader (49153 > 8080 [ACK] Seq=501 Ack=1 Win=32768 ns3::TcpOptionTS(2204;2006) ns3::TcpOptionEnd(EOL)) Payload (size=250)
- 2.20439 /NodeList/1/DeviceList/1/$ns3::PointToPointNetDevice/TxQueue/Dequeue ns3::PppHeader (Point-to-Point Protocol: IP (0x0021)) ns3::Ipv4Header (tos 0x0 DSCP Default ECN Not-ECT ttl 64 id 4 protocol 6 offset (bytes) 0 flags [none] length: 302 192.168.1.2 > 192.168.1.1) ns3::TcpHeader (49153 > 8080 [ACK] Seq=501 Ack=1 Win=32768 ns3::TcpOptionTS(2204;2006) ns3::TcpOptionEnd(EOL)) Payload (size=250)
r 2.20687 /NodeList/0/DeviceList/1/$ns3::PointToPointNetDevice/MacRx ns3::PppHeader (Point-to-Point Protocol: IP (0x0021)) ns3::Ipv4Header (tos 0x0 DSCP Default ECN Not-ECT ttl 64 id 4 protocol 6 offset (bytes) 0 flags [none] length: 302 192.168.1.2 > 192.168.1.1) ns3::TcpHeader (49153 > 8080 [ACK] Seq=501 Ack=1 Win=32768 ns3::TcpOptionTS(2204;2006) ns3::TcpOptionEnd(EOL)) Payload (size=250)
+ 2.40687 /NodeList/0/DeviceList/1/$ns3::PointToPointNetDevice/TxQueue/Enqueue ns3::PppHeader (Point-to-Point Protocol: IP (0x0021)) ns3::Ipv4Header (tos 0x0 DSCP Default ECN Not-ECT ttl 64 id 3 protocol 6 offset (bytes) 0 flags [none] length: 52 192.168.1.1 > 192.168.1.2) ns3::TcpHeader (8080 > 49153 [ACK] Seq=1 Ack=751 Win=32768 ns3::TcpOptionTS(2406;2204) ns3::TcpOptionEnd(EOL))
- 2.40687 /NodeList/0/DeviceList/1/$ns3::PointToPointNetDevice/TxQueue/Dequeue ns3::PppHeader (Point-to-Point Protocol: IP (0x0021)) ns3::Ipv4Header (tos 0x0 DSCP Default ECN Not-ECT ttl 64 id 3 protocol 6 offset (bytes) 0 flags [none] length: 52 192.168.1.1 > 192.168.1.2) ns3::TcpHeader (8080 > 49153 [ACK] Seq=1 Ack=751 Win=32768 ns3::TcpOptionTS(2406;2204) ns3::TcpOptionEnd(EOL))
r 2.40896 /NodeList/1/DeviceList/1/$ns3::PointToPointNetDevice/MacRx ns3::PppHeader (Point-to-Point Protocol: IP (0x0021)) ns3::Ipv4Header (tos 0x0 DSCP Default ECN Not-ECT ttl 64 id 3 protocol 6 offset (bytes) 0 flags [none] length: 52 192.168.1.1 > 192.168.1.2) ns3::TcpHeader (8080 > 49153 [ACK] Seq=1 Ack=751 Win=32768 ns3::TcpOptionTS(2406;2204) ns3::TcpOptionEnd(EOL))
+ 2.60439 /NodeList/1/DeviceList/1/$ns3::PointToPointNetDevice/TxQueue/Enqueue ns3::PppHeader (Point-to-Point Protocol: IP (0x0021)) ns3::Ipv4Header (tos 0x0 DSCP Default ECN Not-ECT ttl 64 id 5 protocol 6 offset (bytes) 0 flags [none] length: 302 192.168.1.2 > 192.168.1.1) ns3::TcpHeader (49153 > 8080 [ACK] Seq=751 Ack=1 Win=32768 ns3::TcpOptionTS(2604;2406) ns3::TcpOptionEnd(EOL)) Payload (size=250)
- 2.60439 /NodeList/1/DeviceList/1/$ns3::PointToPointNetDevice/TxQueue/Dequeue ns3::PppHeader (Point-to-Point Protocol: IP (0x0021)) ns3::Ipv4Header (tos 0x0 DSCP Default ECN Not-ECT ttl 64 id 5 protocol 6 offset (bytes) 0 flags [none] length: 302 192.168.1.2 > 192.168.1.1) ns3::TcpHeader (49153 > 8080 [ACK] Seq=751 Ack=1 Win=32768 ns3::TcpOptionTS(2604;2406) ns3::TcpOptionEnd(EOL)) Payload (size=250)
r 2.60687 /NodeList/0/DeviceList/1/$ns3::PointToPointNetDevice/MacRx ns3::PppHeader (Point-to-Point Protocol: IP (0x0021)) ns3::Ipv4Header (tos 0x0 DSCP Default ECN Not-ECT ttl 64 id 5 protocol 6 offset (bytes) 0 flags [none] length: 302 192.168.1.2 > 192.168.1.1) ns3::TcpHeader (49153 > 8080 [ACK] Seq=751 Ack=1 Win=32768 ns3::TcpOptionTS(2604;2406) ns3::TcpOptionEnd(EOL)) Payload (size=250)
+ 2.80687 /NodeList/0/DeviceList/1/$ns3::PointToPointNetDevice/TxQueue/Enqueue ns3::PppHeader (Point-to-Point Protocol: IP (0x0021)) ns3::Ipv4Header (tos 0x0 DSCP Default ECN Not-ECT ttl 64 id 4 protocol 6 offset (bytes) 0 flags [none] length: 52 192.168.1.1 > 192.168.1.2) ns3::TcpHeader (8080 > 49153 [ACK] Seq=1 Ack=1001 Win=32768 ns3::TcpOptionTS(2806;2604) ns3::TcpOptionEnd(EOL))
- 2.80687 /NodeList/0/DeviceList/1/$ns3::PointToPointNetDevice/TxQueue/Dequeue ns3::PppHeader (Point-to-Point Protocol: IP (0x0021)) ns3::Ipv4Header (tos 0x0 DSCP Default ECN Not-ECT ttl 64 id 4 protocol 6 offset (bytes) 0 flags [none] length: 52 192.168.1.1 > 192.168.1.2) ns3::TcpHeader (8080 > 49153 [ACK] Seq=1 Ack=1001 Win=32768 ns3::TcpOptionTS(2806;2604) ns3::TcpOptionEnd(EOL))
r 2.80896 /NodeList/1/DeviceList/1/$ns3::PointToPointNetDevice/MacRx ns3::PppHeader (Point-to-Point Protocol: IP (0x0021)) ns3::Ipv4Header (tos 0x0 DSCP Default ECN Not-ECT ttl 64 id 4 protocol 6 offset (bytes) 0 flags [none] length: 52 192.168.1.1 > 192.168.1.2) ns3::TcpHeader (8080 > 49153 [ACK] Seq=1 Ack=1001 Win=32768 ns3::TcpOptionTS(2806;2604) ns3::TcpOptionEnd(EOL))
+ 3.00459 /NodeList/1/DeviceList/1/$ns3::PointToPointNetDevice/TxQueue/Enqueue ns3::PppHeader (Point-to-Point Protocol: IP (0x0021)) ns3::Ipv4Header (tos 0x0 DSCP Default ECN Not-ECT ttl 64 id 6 protocol 6 offset (bytes) 0 flags [none] length: 302 192.168.1.2 > 192.168.1.1) ns3::TcpHeader (49153 > 8080 [ACK] Seq=1001 Ack=1 Win=32768 ns3::TcpOptionTS(3004;2806) ns3::TcpOptionEnd(EOL)) Payload (size=250)
- 3.00459 /NodeList/1/DeviceList/1/$ns3::PointToPointNetDevice/TxQueue/Dequeue ns3::PppHeader (Point-to-Point Protocol: IP (0x0021)) ns3::Ipv4Header (tos 0x0 DSCP Default ECN Not-ECT ttl 64 id 6 protocol 6 offset (bytes) 0 flags [none] length: 302 192.168.1.2 > 192.168.1.1) ns3::TcpHeader (49153 > 8080 [ACK] Seq=1001 Ack=1 Win=32768 ns3::TcpOptionTS(3004;2806) ns3::TcpOptionEnd(EOL)) Payload (size=250)
r 3.00707 /NodeList/0/DeviceList/1/$ns3::PointToPointNetDevice/MacRx ns3::PppHeader (Point-to-Point Protocol: IP (0x0021)) ns3::Ipv4Header (tos 0x0 DSCP Default ECN Not-ECT ttl 64 id 6 protocol 6 offset (bytes) 0 flags [none] length: 302 192.168.1.2 > 192.168.1.1) ns3::TcpHeader (49153 > 8080 [ACK] Seq=1001 Ack=1 Win=32768 ns3::TcpOptionTS(3004;2806) ns3::TcpOptionEnd(EOL)) Payload (size=250)
+ 3.20707 /NodeList/0/DeviceList/1/$ns3::PointToPointNetDevice/TxQueue/Enqueue ns3::PppHeader (Point-to-Point Protocol: IP (0x0021)) ns3::Ipv4Header (tos 0x0 DSCP Default ECN Not-ECT ttl 64 id 5 protocol 6 offset (bytes) 0 flags [none] length: 52 192.168.1.1 > 192.168.1.2) ns3::TcpHeader (8080 > 49153 [ACK] Seq=1 Ack=1251 Win=32768 ns3::TcpOptionTS(3207;3004) ns3::TcpOptionEnd(EOL))
- 3.20707 /NodeList/0/DeviceList/1/$ns3::PointToPointNetDevice/TxQueue/Dequeue ns3::PppHeader (Point-to-Point Protocol: IP (0x0021)) ns3::Ipv4Header (tos 0x0 DSCP Default ECN Not-ECT ttl 64 id 5 protocol 6 offset (bytes) 0 flags [none] length: 52 192.168.1.1 > 192.168.1.2) ns3::TcpHeader (8080 > 49153 [ACK] Seq=1 Ack=1251 Win=32768 ns3::TcpOptionTS(3207;3004) ns3::TcpOptionEnd(EOL))
r 3.20916 /NodeList/1/DeviceList/1/$ns3::PointToPointNetDevice/MacRx ns3::PppHeader (Point-to-Point Protocol: IP (0x0021)) ns3::Ipv4Header (tos 0x0 DSCP Default ECN Not-ECT ttl 64 id 5 protocol 6 offset (bytes) 0 flags [none] length: 52 192.168.1.1 > 192.168.1.2) ns3::TcpHeader (8080 > 49153 [ACK] Seq=1 Ack=1251 Win=32768 ns3::TcpOptionTS(3207;3004) ns3::TcpOptionEnd(EOL))
+ 3.40459 /NodeList/1/DeviceList/1/$ns3::PointToPointNetDevice/TxQueue/Enqueue ns3::PppHeader (Point-to-Point Protocol: IP (0x0021)) ns3::Ipv4Header (tos 0x0 DSCP Default ECN Not-ECT ttl 64 id 7 protocol 6 offset (bytes) 0 flags [none] length: 302 192.168.1.2 > 192.168.1.1) ns3::TcpHeader (49153 > 8080 [ACK] Seq=1251 Ack=1 Win=32768 ns3::TcpOptionTS(3404;3207) ns3::TcpOptionEnd(EOL)) Payload (size=250)
- 3.40459 /NodeList/1/DeviceList/1/$ns3::PointToPointNetDevice/TxQueue/Dequeue ns3::PppHeader (Point-to-Point Protocol: IP (0x0021)) ns3::Ipv4Header (tos 0x0 DSCP Default ECN Not-ECT ttl 64 id 7 protocol 6 offset (bytes) 0 flags [none] length: 302 192.168.1.2 > 192.168.1.1) ns3::TcpHeader (49153 > 8080 [ACK] Seq=1251 Ack=1 Win=32768 ns3::TcpOptionTS(3404;3207) ns3::TcpOptionEnd(EOL)) Payload (size=250)
r 3.40707 /NodeList/0/DeviceList/1/$ns3::PointToPointNetDevice/MacRx ns3::PppHeader (Point-to-Point Protocol: IP (0x0021)) ns3::Ipv4Header (tos 0x0 DSCP Default ECN Not-ECT ttl 64 id 7 protocol 6 offset (bytes) 0 flags [none] length: 302 192.168.1.2 > 192.168.1.1) ns3::TcpHeader (49153 > 8080 [ACK] Seq=1251 Ack=1 Win=32768 ns3::TcpOptionTS(3404;3207) ns3::TcpOptionEnd(EOL)) Payload (size=250)
+ 3.60707 /NodeList/0/DeviceList/1/$ns3::PointToPointNetDevice/TxQueue/Enqueue ns3::PppHeader (Point-to-Point Protocol: IP (0x0021)) ns3::Ipv4Header (tos 0x0 DSCP Default ECN Not-ECT ttl 64 id 6 protocol 6 offset (bytes) 0 flags [none] length: 52 192.168.1.1 > 192.168.1.2) ns3::TcpHeader (8080 > 49153 [ACK] Seq=1 Ack=1501 Win=32768 ns3::TcpOptionTS(3607;3404) ns3::TcpOptionEnd(EOL))
- 3.60707 /NodeList/0/DeviceList/1/$ns3::PointToPointNetDevice/TxQueue/Dequeue ns3::PppHeader (Point-to-Point Protocol: IP (0x0021)) ns3::Ipv4Header (tos 0x0 DSCP Default ECN Not-ECT ttl 64 id 6 protocol 6 offset (bytes) 0 flags [none] length: 52 192.168.1.1 > 192.168.1.2) ns3::TcpHeader (8080 > 49153 [ACK] Seq=1 Ack=1501 Win=32768 ns3::TcpOptionTS(3607;3404) ns3::TcpOptionEnd(EOL))
r 3.60916 /NodeList/1/DeviceList/1/$ns3::PointToPointNetDevice/MacRx ns3::PppHeader (Point-to-Point Protocol: IP (0x0021)) ns3::Ipv4Header (tos 0x0 DSCP Default ECN Not-ECT ttl 64 id 6 protocol 6 offset (bytes) 0 flags [none] length: 52 192.168.1.1 > 192.168.1.2) ns3::TcpHeader (8080 > 49153 [ACK] Seq=1 Ack=1501 Win=32768 ns3::TcpOptionTS(3607;3404) ns3::TcpOptionEnd(EOL))
+ 3.80459 /NodeList/1/DeviceList/1/$ns3::PointToPointNetDevice/TxQueue/Enqueue ns3::PppHeader (Point-to-Point Protocol: IP (0x0021)) ns3::Ipv4Header (tos 0x0 DSCP Default ECN Not-ECT ttl 64 id 8 protocol 6 offset (bytes) 0 flags [none] length: 302 192.168.1.2 > 192.168.1.1) ns3::TcpHeader (49153 > 8080 [ACK] Seq=1501 Ack=1 Win=32768 ns3::TcpOptionTS(3804;3607) ns3::TcpOptionEnd(EOL)) Payload (size=250)
- 3.80459 /NodeList/1/DeviceList/1/$ns3::PointToPointNetDevice/TxQueue/Dequeue ns3::PppHeader (Point-to-Point Protocol: IP (0x0021)) ns3::Ipv4Header (tos 0x0 DSCP Default ECN Not-ECT ttl 64 id 8 protocol 6 offset (bytes) 0 flags [none] length: 302 192.168.1.2 > 192.168.1.1) ns3::TcpHeader (49153 > 8080 [ACK] Seq=1501 Ack=1 Win=32768 ns3::TcpOptionTS(3804;3607) ns3::TcpOptionEnd(EOL)) Payload (size=250)
r 3.80707 /NodeList/0/DeviceList/1/$ns3::PointToPointNetDevice/MacRx ns3::PppHeader (Point-to-Point Protocol: IP (0x0021)) ns3::Ipv4Header (tos 0x0 DSCP Default ECN Not-ECT ttl 64 id 8 protocol 6 offset (bytes) 0 flags [none] length: 302 192.168.1.2 > 192.168.1.1) ns3::TcpHeader (49153 > 8080 [ACK] Seq=1501 Ack=1 Win=32768 ns3::TcpOptionTS(3804;3607) ns3::TcpOptionEnd(EOL)) Payload (size=250)
+ 4.00707 /NodeList/0/DeviceList/1/$ns3::PointToPointNetDevice/TxQueue/Enqueue ns3::PppHeader (Point-to-Point Protocol: IP (0x0021)) ns3::Ipv4Header (tos 0x0 DSCP Default ECN Not-ECT ttl 64 id 7 protocol 6 offset (bytes) 0 flags [none] length: 52 192.168.1.1 > 192.168.1.2) ns3::TcpHeader (8080 > 49153 [ACK] Seq=1 Ack=1751 Win=32768 ns3::TcpOptionTS(4007;3804) ns3::TcpOptionEnd(EOL))
- 4.00707 /NodeList/0/DeviceList/1/$ns3::PointToPointNetDevice/TxQueue/Dequeue ns3::PppHeader (Point-to-Point Protocol: IP (0x0021)) ns3::Ipv4Header (tos 0x0 DSCP Default ECN Not-ECT ttl 64 id 7 protocol 6 offset (bytes) 0 flags [none] length: 52 192.168.1.1 > 192.168.1.2) ns3::TcpHeader (8080 > 49153 [ACK] Seq=1 Ack=1751 Win=32768 ns3::TcpOptionTS(4007;3804) ns3::TcpOptionEnd(EOL))
r 4.00916 /NodeList/1/DeviceList/1/$ns3::PointToPointNetDevice/MacRx ns3::PppHeader (Point-to-Point Protocol: IP (0x0021)) ns3::Ipv4Header (tos 0x0 DSCP Default ECN Not-ECT ttl 64 id 7 protocol 6 offset (bytes) 0 flags [none] length: 52 192.168.1.1 > 192.168.1.2) ns3::TcpHeader (8080 > 49153 [ACK] Seq=1 Ack=1751 Win=32768 ns3::TcpOptionTS(4007;3804) ns3::TcpOptionEnd(EOL))
+ 4.20479 /NodeList/1/DeviceList/1/$ns3::PointToPointNetDevice/TxQueue/Enqueue ns3::PppHeader (Point-to-Point Protocol: IP (0x0021)) ns3::Ipv4Header (tos 0x0 DSCP Default ECN Not-ECT ttl 64 id 9 protocol 6 offset (bytes) 0 flags [none] length: 302 192.168.1.2 > 192.168.1.1) ns3::TcpHeader (49153 > 8080 [ACK] Seq=1751 Ack=1 Win=32768 ns3::TcpOptionTS(4204;4007) ns3::TcpOptionEnd(EOL)) Payload (size=250)
- 4.20479 /NodeList/1/DeviceList/1/$ns3::PointToPointNetDevice/TxQueue/Dequeue ns3::PppHeader (Point-to-Point Protocol: IP (0x0021)) ns3::Ipv4Header (tos 0x0 DSCP Default ECN Not-ECT ttl 64 id 9 protocol 6 offset (bytes) 0 flags [none] length: 302 192.168.1.2 > 192.168.1.1) ns3::TcpHeader (49153 > 8080 [ACK] Seq=1751 Ack=1 Win=32768 ns3::TcpOptionTS(4204;4007) ns3::TcpOptionEnd(EOL)) Payload (size=250)
r 4.20727 /NodeList/0/DeviceList/1/$ns3::PointToPointNetDevice/MacRx ns3::PppHeader (Point-to-Point Protocol: IP (0x0021)) ns3::Ipv4Header (tos 0x0 DSCP Default ECN Not-ECT ttl 64 id 9 protocol 6 offset (bytes) 0 flags [none] length: 302 192.168.1.2 > 192.168.1.1) ns3::TcpHeader (49153 > 8080 [ACK] Seq=1751 Ack=1 Win=32768 ns3::TcpOptionTS(4204;4007) ns3::TcpOptionEnd(EOL)) Payload (size=250)
+ 4.40727 /NodeList/0/DeviceList/1/$ns3::PointToPointNetDevice/TxQueue/Enqueue ns3::PppHeader (Point-to-Point Protocol: IP (0x0021)) ns3::Ipv4Header (tos 0x0 DSCP Default ECN Not-ECT ttl 64 id 8 protocol 6 offset (bytes) 0 flags [none] length: 52 192.168.1.1 > 192.168.1.2) ns3::TcpHeader (8080 > 49153 [ACK] Seq=1 Ack=2001 Win=32768 ns3::TcpOptionTS(4407;4204) ns3::TcpOptionEnd(EOL))
- 4.40727 /NodeList/0/DeviceList/1/$ns3::PointToPointNetDevice/TxQueue/Dequeue ns3::PppHeader (Point-to-Point Protocol: IP (0x0021)) ns3::Ipv4Header (tos 0x0 DSCP Default ECN Not-ECT ttl 64 id 8 protocol 6 offset (bytes) 0 flags [none] length: 52 192.168.1.1 > 192.168.1.2) ns3::TcpHeader (8080 > 49153 [ACK] Seq=1 Ack=2001 Win=32768 ns3::TcpOptionTS(4407;4204) ns3::TcpOptionEnd(EOL))
r 4.40936 /NodeList/1/DeviceList/1/$ns3::PointToPointNetDevice/MacRx ns3::PppHeader (Point-to-Point Protocol: IP (0x0021)) ns3::Ipv4Header (tos 0x0 DSCP Default ECN Not-ECT ttl 64 id 8 protocol 6 offset (bytes) 0 flags [none] length: 52 192.168.1.1 > 192.168.1.2) ns3::TcpHeader (8080 > 49153 [ACK] Seq=1 Ack=2001 Win=32768 ns3::TcpOptionTS(4407;4204) ns3::TcpOptionEnd(EOL))
+ 4.60479 /NodeList/1/DeviceList/1/$ns3::PointToPointNetDevice/TxQueue/Enqueue ns3::PppHeader (Point-to-Point Protocol: IP (0x0021)) ns3::Ipv4Header (tos 0x0 DSCP Default ECN Not-ECT ttl 64 id 10 protocol 6 offset (bytes) 0 flags [none] length: 302 192.168.1.2 > 192.168.1.1) ns3::TcpHeader (49153 > 8080 [ACK] Seq=2001 Ack=1 Win=32768 ns3::TcpOptionTS(4604;4407) ns3::TcpOptionEnd(EOL)) Payload (size=250)
- 4.60479 /NodeList/1/DeviceList/1/$ns3::PointToPointNetDevice/TxQueue/Dequeue ns3::PppHeader (Point-to-Point Protocol: IP (0x0021)) ns3::Ipv4Header (tos 0x0 DSCP Default ECN Not-ECT ttl 64 id 10 protocol 6 offset (bytes) 0 flags [none] length: 302 192.168.1.2 > 192.168.1.1) ns3::TcpHeader (49153 > 8080 [ACK] Seq=2001 Ack=1 Win=32768 ns3::TcpOptionTS(4604;4407) ns3::TcpOptionEnd(EOL)) Payload (size=250)
r 4.60727 /NodeList/0/DeviceList/1/$ns3::PointToPointNetDevice/MacRx ns3::PppHeader (Point-to-Point Protocol: IP (0x0021)) ns3::Ipv4Header (tos 0x0 DSCP Default ECN Not-ECT ttl 64 id 10 protocol 6 offset (bytes) 0 flags [none] length: 302 192.168.1.2 > 192.168.1.1) ns3::TcpHeader (49153 > 8080 [ACK] Seq=2001 Ack=1 Win=32768 ns3::TcpOptionTS(4604;4407) ns3::TcpOptionEnd(EOL)) Payload (size=250)
+ 4.80727 /NodeList/0/DeviceList/1/$ns3::PointToPointNetDevice/TxQueue/Enqueue ns3::PppHeader (Point-to-Point Protocol: IP (0x0021)) ns3::Ipv4Header (tos 0x0 DSCP Default ECN Not-ECT ttl 64 id 9 protocol 6 offset (bytes) 0 flags [none] length: 52 192.168.1.1 > 192.168.1.2) ns3::TcpHeader (8080 > 49153 [ACK] Seq=1 Ack=2251 Win=32768 ns3::TcpOptionTS(4807;4604) ns3::TcpOptionEnd(EOL))
- 4.80727 /NodeList/0/DeviceList/1/$ns3::PointToPointNetDevice/TxQueue/Dequeue ns3::PppHeader (Point-to-Point Protocol: IP (0x0021)) ns3::Ipv4Header (tos 0x0 DSCP Default ECN Not-ECT ttl 64 id 9 protocol 6 offset (bytes) 0 flags [none] length: 52 192.168.1.1 > 192.168.1.2) ns3::TcpHeader (8080 > 49153 [ACK] Seq=1 Ack=2251 Win=32768 ns3::TcpOptionTS(4807;4604) ns3::TcpOptionEnd(EOL))
r 4.80936 /NodeList/1/DeviceList/1/$ns3::PointToPointNetDevice/MacRx ns3::PppHeader (Point-to-Point Protocol: IP (0x0021)) ns3::Ipv4Header (tos 0x0 DSCP Default ECN Not-ECT ttl 64 id 9 protocol 6 offset (bytes) 0 flags [none] length: 52 192.168.1.1 > 192.168.1.2) ns3::TcpHeader (8080 > 49153 [ACK] Seq=1 Ack=2251 Win=32768 ns3::TcpOptionTS(4807;4604) ns3::TcpOptionEnd(EOL))
+ 5.00499 /NodeList/1/DeviceList/1/$ns3::PointToPointNetDevice/TxQueue/Enqueue ns3::PppHeader (Point-to-Point Protocol: IP (0x0021)) ns3::Ipv4Header (tos 0x0 DSCP Default ECN Not-ECT ttl 64 id 11 protocol 6 offset (bytes) 0 flags [none] length: 302 192.168.1.2 > 192.168.1.1) ns3::TcpHeader (49153 > 8080 [ACK] Seq=2251 Ack=1 Win=32768 ns3::TcpOptionTS(5004;4807) ns3::TcpOptionEnd(EOL)) Payload (size=250)
- 5.00499 /NodeList/1/DeviceList/1/$ns3::PointToPointNetDevice/TxQueue/Dequeue ns3::PppHeader (Point-to-Point Protocol: IP (0x0021)) ns3::Ipv4Header (tos 0x0 DSCP Default ECN Not-ECT ttl 64 id 11 protocol 6 offset (bytes) 0 flags [none] length: 302 192.168.1.2 > 192.168.1.1) ns3::TcpHeader (49153 > 8080 [ACK] Seq=2251 Ack=1 Win=32768 ns3::TcpOptionTS(5004;4807) ns3::TcpOptionEnd(EOL)) Payload (size=250)
r 5.00747 /NodeList/0/DeviceList/1/$ns3::PointToPointNetDevice/MacRx ns3::PppHeader (Point-to-Point Protocol: IP (0x0021)) ns3::Ipv4Header (tos 0x0 DSCP Default ECN Not-ECT ttl 64 id 11 protocol 6 offset (bytes) 0 flags [none] length: 302 192.168.1.2 > 192.168.1.1) ns3::TcpHeader (49153 > 8080 [ACK] Seq=2251 Ack=1 Win=32768 ns3::TcpOptionTS(5004;4807) ns3::TcpOptionEnd(EOL)) Payload (size=250)
+ 5.20747 /NodeList/0/DeviceList/1/$ns3::PointToPointNetDevice/TxQueue/Enqueue ns3::PppHeader (Point-to-Point Protocol: IP (0x0021)) ns3::Ipv4Header (tos 0x0 DSCP Default ECN Not-ECT ttl 64 id 10 protocol 6 offset (bytes) 0 flags [none] length: 52 192.168.1.1 > 192.168.1.2) ns3::TcpHeader (8080 > 49153 [ACK] Seq=1 Ack=2501 Win=32768 ns3::TcpOptionTS(5207;5004) ns3::TcpOptionEnd(EOL))
- 5.20747 /NodeList/0/DeviceList/1/$ns3::PointToPointNetDevice/TxQueue/Dequeue ns3::PppHeader (Point-to-Point Protocol: IP (0x0021)) ns3::Ipv4Header (tos 0x0 DSCP Default ECN Not-ECT ttl 64 id 10 protocol 6 offset (bytes) 0 flags [none] length: 52 192.168.1.1 > 192.168.1.2) ns3::TcpHeader (8080 > 49153 [ACK] Seq=1 Ack=2501 Win=32768 ns3::TcpOptionTS(5207;5004) ns3::TcpOptionEnd(EOL))
r 5.20956 /NodeList/1/DeviceList/1/$ns3::PointToPointNetDevice/MacRx ns3::PppHeader (Point-to-Point Protocol: IP (0x0021)) ns3::Ipv4Header (tos 0x0 DSCP Default ECN Not-ECT ttl 64 id 10 protocol 6 offset (bytes) 0 flags [none] length: 52 192.168.1.1 > 192.168.1.2) ns3::TcpHeader (8080 > 49153 [ACK] Seq=1 Ack=2501 Win=32768 ns3::TcpOptionTS(5207;5004) ns3::TcpOptionEnd(EOL))
+ 5.40499 /NodeList/1/DeviceList/1/$ns3::PointToPointNetDevice/TxQueue/Enqueue ns3::PppHeader (Point-to-Point Protocol: IP (0x0021)) ns3::Ipv4Header (tos 0x0 DSCP Default ECN Not-ECT ttl 64 id 12 protocol 6 offset (bytes) 0 flags [none] length: 302 192.168.1.2 > 192.168.1.1) ns3::TcpHeader (49153 > 8080 [ACK] Seq=2501 Ack=1 Win=32768 ns3::TcpOptionTS(5404;5207) ns3::TcpOptionEnd(EOL)) Payload (size=250)
- 5.40499 /NodeList/1/DeviceList/1/$ns3::PointToPointNetDevice/TxQueue/Dequeue ns3::PppHeader (Point-to-Point Protocol: IP (0x0021)) ns3::Ipv4Header (tos 0x0 DSCP Default ECN Not-ECT ttl 64 id 12 protocol 6 offset (bytes) 0 flags [none] length: 302 192.168.1.2 > 192.168.1.1) ns3::TcpHeader (49153 > 8080 [ACK] Seq=2501 Ack=1 Win=32768 ns3::TcpOptionTS(5404;5207) ns3::TcpOptionEnd(EOL)) Payload (size=250)
r 5.40747 /NodeList/0/DeviceList/1/$ns3::PointToPointNetDevice/MacRx ns3::PppHeader (Point-to-Point Protocol: IP (0x0021)) ns3::Ipv4Header (tos 0x0 DSCP Default ECN Not-ECT ttl 64 id 12 protocol 6 offset (bytes) 0 flags [none] length: 302 192.168.1.2 > 192.168.1.1) ns3::TcpHeader (49153 > 8080 [ACK] Seq=2501 Ack=1 Win=32768 ns3::TcpOptionTS(5404;5207) ns3::TcpOptionEnd(EOL)) Payload (size=250)
+ 5.60747 /NodeList/0/DeviceList/1/$ns3::PointToPointNetDevice/TxQueue/Enqueue ns3::PppHeader (Point-to-Point Protocol: IP (0x0021)) ns3::Ipv4Header (tos 0x0 DSCP Default ECN Not-ECT ttl 64 id 11 protocol 6 offset (bytes) 0 flags [none] length: 52 192.168.1.1 > 192.168.1.2) ns3::TcpHeader (8080 > 49153 [ACK] Seq=1 Ack=2751 Win=32768 ns3::TcpOptionTS(5607;5404) ns3::TcpOptionEnd(EOL))
- 5.60747 /NodeList/0/DeviceList/1/$ns3::PointToPointNetDevice/TxQueue/Dequeue ns3::PppHeader (Point-to-Point Protocol: IP (0x0021)) ns3::Ipv4Header (tos 0x0 DSCP Default ECN Not-ECT ttl 64 id 11 protocol 6 offset (bytes) 0 flags [none] length: 52 192.168.1.1 > 192.168.1.2) ns3::TcpHeader (8080 > 49153 [ACK] Seq=1 Ack=2751 Win=32768 ns3::TcpOptionTS(5607;5404) ns3::TcpOptionEnd(EOL))
r 5.60956 /NodeList/1/DeviceList/1/$ns3::PointToPointNetDevice/MacRx ns3::PppHeader (Point-to-Point Protocol: IP (0x0021)) ns3::Ipv4Header (tos 0x0 DSCP Default ECN Not-ECT ttl 64 id 11 protocol 6 offset (bytes) 0 flags [none] length: 52 192.168.1.1 > 192.168.1.2) ns3::TcpHeader (8080 > 49153 [ACK] Seq=1 Ack=2751 Win=32768 ns3::TcpOptionTS(5607;5404) ns3::TcpOptionEnd(EOL))