+ 1 /NodeList/3/DeviceList/0/$ns3::CsmaNetDevice/TxQueue/Enqueue ns3::EthernetHeader ( length/type=0x806, source=00:00:00:00:00:04, destination=ff:ff:ff:ff:ff:ff) ns3::ArpHeader (request source mac: 00-06-00:00:00:00:00:04 source ipv4: 192.168.1.4 dest ipv4: 192.168.1.1) Payload (size=18) ns3::EthernetTrailer (fcs=0)
- 1 /NodeList/3/DeviceList/0/$ns3::CsmaNetDevice/TxQueue/Dequeue ns3::EthernetHeader ( length/type=0x806, source=00:00:00:00:00:04, destination=ff:ff:ff:ff:ff:ff) ns3::ArpHeader (request source mac: 00-06-00:00:00:00:00:04 source ipv4: 192.168.1.4 dest ipv4: 192.168.1.1) Payload (size=18) ns3::EthernetTrailer (fcs=0)
+ 1 /NodeList/16/DeviceList/0/$ns3::CsmaNetDevice/TxQueue/Enqueue ns3::EthernetHeader ( length/type=0x806, source=00:00:00:00:00:11, destination=ff:ff:ff:ff:ff:ff) ns3::ArpHeader (request source mac: 00-06-00:00:00:00:00:11 source ipv4: 192.168.2.6 dest ipv4: 192.168.2.1) Payload (size=18) ns3::EthernetTrailer (fcs=0)
- 1 /NodeList/16/DeviceList/0/$ns3::CsmaNetDevice/TxQueue/Dequeue ns3::EthernetHeader ( length/type=0x806, source=00:00:00:00:00:11, destination=ff:ff:ff:ff:ff:ff) ns3::ArpHeader (request source mac: 00-06-00:00:00:00:00:11 source ipv4: 192.168.2.6 dest ipv4: 192.168.2.1) Payload (size=18) ns3::EthernetTrailer (fcs=0)
r 1.00001 /NodeList/0/DeviceList/0/$ns3::CsmaNetDevice/MacRx ns3::EthernetHeader ( length/type=0x806, source=00:00:00:00:00:04, destination=ff:ff:ff:ff:ff:ff) ns3::ArpHeader (request source mac: 00-06-00:00:00:00:00:04 source ipv4: 192.168.1.4 dest ipv4: 192.168.1.1) Payload (size=18) ns3::EthernetTrailer (fcs=0)
+ 1.00001 /NodeList/0/DeviceList/0/$ns3::CsmaNetDevice/TxQueue/Enqueue ns3::EthernetHeader ( length/type=0x806, source=00:00:00:00:00:01, destination=00:00:00:00:00:04) ns3::ArpHeader (reply source mac: 00-06-00:00:00:00:00:01 source ipv4: 192.168.1.1 dest mac: 00-06-00:00:00:00:00:04 dest ipv4: 192.168.1.4) Payload (size=18) ns3::EthernetTrailer (fcs=0)
- 1.00001 /NodeList/0/DeviceList/0/$ns3::CsmaNetDevice/TxQueue/Dequeue ns3::EthernetHeader ( length/type=0x806, source=00:00:00:00:00:01, destination=00:00:00:00:00:04) ns3::ArpHeader (reply source mac: 00-06-00:00:00:00:00:01 source ipv4: 192.168.1.1 dest mac: 00-06-00:00:00:00:00:04 dest ipv4: 192.168.1.4) Payload (size=18) ns3::EthernetTrailer (fcs=0)
r 1.00001 /NodeList/1/DeviceList/0/$ns3::CsmaNetDevice/MacRx ns3::EthernetHeader ( length/type=0x806, source=00:00:00:00:00:04, destination=ff:ff:ff:ff:ff:ff) ns3::ArpHeader (request source mac: 00-06-00:00:00:00:00:04 source ipv4: 192.168.1.4 dest ipv4: 192.168.1.1) Payload (size=18) ns3::EthernetTrailer (fcs=0)
r 1.00001 /NodeList/2/DeviceList/0/$ns3::CsmaNetDevice/MacRx ns3::EthernetHeader ( length/type=0x806, source=00:00:00:00:00:04, destination=ff:ff:ff:ff:ff:ff) ns3::ArpHeader (request source mac: 00-06-00:00:00:00:00:04 source ipv4: 192.168.1.4 dest ipv4: 192.168.1.1) Payload (size=18) ns3::EthernetTrailer (fcs=0)
r 1.00001 /NodeList/4/DeviceList/0/$ns3::CsmaNetDevice/MacRx ns3::EthernetHeader ( length/type=0x806, source=00:00:00:00:00:04, destination=ff:ff:ff:ff:ff:ff) ns3::ArpHeader (request source mac: 00-06-00:00:00:00:00:04 source ipv4: 192.168.1.4 dest ipv4: 192.168.1.1) Payload (size=18) ns3::EthernetTrailer (fcs=0)
r 1.00001 /NodeList/5/DeviceList/0/$ns3::CsmaNetDevice/MacRx ns3::EthernetHeader ( length/type=0x806, source=00:00:00:00:00:04, destination=ff:ff:ff:ff:ff:ff) ns3::ArpHeader (request source mac: 00-06-00:00:00:00:00:04 source ipv4: 192.168.1.4 dest ipv4: 192.168.1.1) Payload (size=18) ns3::EthernetTrailer (fcs=0)
r 1.00001 /NodeList/6/DeviceList/0/$ns3::CsmaNetDevice/MacRx ns3::EthernetHeader ( length/type=0x806, source=00:00:00:00:00:04, destination=ff:ff:ff:ff:ff:ff) ns3::ArpHeader (request source mac: 00-06-00:00:00:00:00:04 source ipv4: 192.168.1.4 dest ipv4: 192.168.1.1) Payload (size=18) ns3::EthernetTrailer (fcs=0)
r 1.00001 /NodeList/7/DeviceList/0/$ns3::CsmaNetDevice/MacRx ns3::EthernetHeader ( length/type=0x806, source=00:00:00:00:00:04, destination=ff:ff:ff:ff:ff:ff) ns3::ArpHeader (request source mac: 00-06-00:00:00:00:00:04 source ipv4: 192.168.1.4 dest ipv4: 192.168.1.1) Payload (size=18) ns3::EthernetTrailer (fcs=0)
r 1.00001 /NodeList/8/DeviceList/0/$ns3::CsmaNetDevice/MacRx ns3::EthernetHeader ( length/type=0x806, source=00:00:00:00:00:04, destination=ff:ff:ff:ff:ff:ff) ns3::ArpHeader (request source mac: 00-06-00:00:00:00:00:04 source ipv4: 192.168.1.4 dest ipv4: 192.168.1.1) Payload (size=18) ns3::EthernetTrailer (fcs=0)
r 1.00001 /NodeList/9/DeviceList/0/$ns3::CsmaNetDevice/MacRx ns3::EthernetHeader ( length/type=0x806, source=00:00:00:00:00:04, destination=ff:ff:ff:ff:ff:ff) ns3::ArpHeader (request source mac: 00-06-00:00:00:00:00:04 source ipv4: 192.168.1.4 dest ipv4: 192.168.1.1) Payload (size=18) ns3::EthernetTrailer (fcs=0)
r 1.00001 /NodeList/10/DeviceList/0/$ns3::CsmaNetDevice/MacRx ns3::EthernetHeader ( length/type=0x806, source=00:00:00:00:00:04, destination=ff:ff:ff:ff:ff:ff) ns3::ArpHeader (request source mac: 00-06-00:00:00:00:00:04 source ipv4: 192.168.1.4 dest ipv4: 192.168.1.1) Payload (size=18) ns3::EthernetTrailer (fcs=0)
r 1.00001 /NodeList/11/DeviceList/0/$ns3::CsmaNetDevice/MacRx ns3::EthernetHeader ( length/type=0x806, source=00:00:00:00:00:11, destination=ff:ff:ff:ff:ff:ff) ns3::ArpHeader (request source mac: 00-06-00:00:00:00:00:11 source ipv4: 192.168.2.6 dest ipv4: 192.168.2.1) Payload (size=18) ns3::EthernetTrailer (fcs=0)
+ 1.00001 /NodeList/11/DeviceList/0/$ns3::CsmaNetDevice/TxQueue/Enqueue ns3::EthernetHeader ( length/type=0x806, source=00:00:00:00:00:0c, destination=00:00:00:00:00:11) ns3::ArpHeader (reply source mac: 00-06-00:00:00:00:00:0c source ipv4: 192.168.2.1 dest mac: 00-06-00:00:00:00:00:11 dest ipv4: 192.168.2.6) Payload (size=18) ns3::EthernetTrailer (fcs=0)
- 1.00001 /NodeList/11/DeviceList/0/$ns3::CsmaNetDevice/TxQueue/Dequeue ns3::EthernetHeader ( length/type=0x806, source=00:00:00:00:00:0c, destination=00:00:00:00:00:11) ns3::ArpHeader (reply source mac: 00-06-00:00:00:00:00:0c source ipv4: 192.168.2.1 dest mac: 00-06-00:00:00:00:00:11 dest ipv4: 192.168.2.6) Payload (size=18) ns3::EthernetTrailer (fcs=0)
r 1.00001 /NodeList/12/DeviceList/0/$ns3::CsmaNetDevice/MacRx ns3::EthernetHeader ( length/type=0x806, source=00:00:00:00:00:11, destination=ff:ff:ff:ff:ff:ff) ns3::ArpHeader (request source mac: 00-06-00:00:00:00:00:11 source ipv4: 192.168.2.6 dest ipv4: 192.168.2.1) Payload (size=18) ns3::EthernetTrailer (fcs=0)
r 1.00001 /NodeList/13/DeviceList/0/$ns3::CsmaNetDevice/MacRx ns3::EthernetHeader ( length/type=0x806, source=00:00:00:00:00:11, destination=ff:ff:ff:ff:ff:ff) ns3::ArpHeader (request source mac: 00-06-00:00:00:00:00:11 source ipv4: 192.168.2.6 dest ipv4: 192.168.2.1) Payload (size=18) ns3::EthernetTrailer (fcs=0)
r 1.00001 /NodeList/14/DeviceList/0/$ns3::CsmaNetDevice/MacRx ns3::EthernetHeader ( length/type=0x806, source=00:00:00:00:00:11, destination=ff:ff:ff:ff:ff:ff) ns3::ArpHeader (request source mac: 00-06-00:00:00:00:00:11 source ipv4: 192.168.2.6 dest ipv4: 192.168.2.1) Payload (size=18) ns3::EthernetTrailer (fcs=0)
r 1.00001 /NodeList/15/DeviceList/0/$ns3::CsmaNetDevice/MacRx ns3::EthernetHeader ( length/type=0x806, source=00:00:00:00:00:11, destination=ff:ff:ff:ff:ff:ff) ns3::ArpHeader (request source mac: 00-06-00:00:00:00:00:11 source ipv4: 192.168.2.6 dest ipv4: 192.168.2.1) Payload (size=18) ns3::EthernetTrailer (fcs=0)
r 1.00001 /NodeList/17/DeviceList/0/$ns3::CsmaNetDevice/MacRx ns3::EthernetHeader ( length/type=0x806, source=00:00:00:00:00:11, destination=ff:ff:ff:ff:ff:ff) ns3::ArpHeader (request source mac: 00-06-00:00:00:00:00:11 source ipv4: 192.168.2.6 dest ipv4: 192.168.2.1) Payload (size=18) ns3::EthernetTrailer (fcs=0)
r 1.00001 /NodeList/18/DeviceList/0/$ns3::CsmaNetDevice/MacRx ns3::EthernetHeader ( length/type=0x806, source=00:00:00:00:00:11, destination=ff:ff:ff:ff:ff:ff) ns3::ArpHeader (request source mac: 00-06-00:00:00:00:00:11 source ipv4: 192.168.2.6 dest ipv4: 192.168.2.1) Payload (size=18) ns3::EthernetTrailer (fcs=0)
r 1.00001 /NodeList/19/DeviceList/0/$ns3::CsmaNetDevice/MacRx ns3::EthernetHeader ( length/type=0x806, source=00:00:00:00:00:11, destination=ff:ff:ff:ff:ff:ff) ns3::ArpHeader (request source mac: 00-06-00:00:00:00:00:11 source ipv4: 192.168.2.6 dest ipv4: 192.168.2.1) Payload (size=18) ns3::EthernetTrailer (fcs=0)
r 1.00001 /NodeList/20/DeviceList/0/$ns3::CsmaNetDevice/MacRx ns3::EthernetHeader ( length/type=0x806, source=00:00:00:00:00:11, destination=ff:ff:ff:ff:ff:ff) ns3::ArpHeader (request source mac: 00-06-00:00:00:00:00:11 source ipv4: 192.168.2.6 dest ipv4: 192.168.2.1) Payload (size=18) ns3::EthernetTrailer (fcs=0)
r 1.00001 /NodeList/21/DeviceList/0/$ns3::CsmaNetDevice/MacRx ns3::EthernetHeader ( length/type=0x806, source=00:00:00:00:00:11, destination=ff:ff:ff:ff:ff:ff) ns3::ArpHeader (request source mac: 00-06-00:00:00:00:00:11 source ipv4: 192.168.2.6 dest ipv4: 192.168.2.1) Payload (size=18) ns3::EthernetTrailer (fcs=0)
r 1.00002 /NodeList/3/DeviceList/0/$ns3::CsmaNetDevice/MacRx ns3::EthernetHeader ( length/type=0x806, source=00:00:00:00:00:01, destination=00:00:00:00:00:04) ns3::ArpHeader (reply source mac: 00-06-00:00:00:00:00:01 source ipv4: 192.168.1.1 dest mac: 00-06-00:00:00:00:00:04 dest ipv4: 192.168.1.4) Payload (size=18) ns3::EthernetTrailer (fcs=0)
+ 1.00002 /NodeList/3/DeviceList/0/$ns3::CsmaNetDevice/TxQueue/Enqueue ns3::EthernetHeader ( length/type=0x800, source=00:00:00:00:00:04, destination=00:00:00:00:00:01) ns3::Ipv4Header (tos 0x0 DSCP Default ECN Not-ECT ttl 64 id 0 protocol 6 offset (bytes) 0 flags [none] length: 56 192.168.1.4 > 192.168.1.1) ns3::TcpHeader (49153 > 8080 [SYN] Seq=0 Ack=0 Win=65535 ns3::TcpOptionTS(1000;0) ns3::TcpOptionWinScale(2) ns3::TcpOptionSackPermitted([sack_perm]) ns3::TcpOptionEnd(EOL)) ns3::EthernetTrailer (fcs=0)
- 1.00002 /NodeList/3/DeviceList/0/$ns3::CsmaNetDevice/TxQueue/Dequeue ns3::EthernetHeader ( length/type=0x800, source=00:00:00:00:00:04, destination=00:00:00:00:00:01) ns3::Ipv4Header (tos 0x0 DSCP Default ECN Not-ECT ttl 64 id 0 protocol 6 offset (bytes) 0 flags [none] length: 56 192.168.1.4 > 192.168.1.1) ns3::TcpHeader (49153 > 8080 [SYN] Seq=0 Ack=0 Win=65535 ns3::TcpOptionTS(1000;0) ns3::TcpOptionWinScale(2) ns3::TcpOptionSackPermitted([sack_perm]) ns3::TcpOptionEnd(EOL)) ns3::EthernetTrailer (fcs=0)
r 1.00002 /NodeList/16/DeviceList/0/$ns3::CsmaNetDevice/MacRx ns3::EthernetHeader ( length/type=0x806, source=00:00:00:00:00:0c, destination=00:00:00:00:00:11) ns3::ArpHeader (reply source mac: 00-06-00:00:00:00:00:0c source ipv4: 192.168.2.1 dest mac: 00-06-00:00:00:00:00:11 dest ipv4: 192.168.2.6) Payload (size=18) ns3::EthernetTrailer (fcs=0)
+ 1.00002 /NodeList/16/DeviceList/0/$ns3::CsmaNetDevice/TxQueue/Enqueue ns3::EthernetHeader ( length/type=0x800, source=00:00:00:00:00:11, destination=00:00:00:00:00:0c) ns3::Ipv4Header (tos 0x0 DSCP Default ECN Not-ECT ttl 64 id 0 protocol 6 offset (bytes) 0 flags [none] length: 56 192.168.2.6 > 192.168.2.1) ns3::TcpHeader (49153 > 8080 [SYN] Seq=0 Ack=0 Win=65535 ns3::TcpOptionTS(1000;0) ns3::TcpOptionWinScale(2) ns3::TcpOptionSackPermitted([sack_perm]) ns3::TcpOptionEnd(EOL)) ns3::EthernetTrailer (fcs=0)
- 1.00002 /NodeList/16/DeviceList/0/$ns3::CsmaNetDevice/TxQueue/Dequeue ns3::EthernetHeader ( length/type=0x800, source=00:00:00:00:00:11, destination=00:00:00:00:00:0c) ns3::Ipv4Header (tos 0x0 DSCP Default ECN Not-ECT ttl 64 id 0 protocol 6 offset (bytes) 0 flags [none] length: 56 192.168.2.6 > 192.168.2.1) ns3::TcpHeader (49153 > 8080 [SYN] Seq=0 Ack=0 Win=65535 ns3::TcpOptionTS(1000;0) ns3::TcpOptionWinScale(2) ns3::TcpOptionSackPermitted([sack_perm]) ns3::TcpOptionEnd(EOL)) ns3::EthernetTrailer (fcs=0)
r 1.00004 /NodeList/0/DeviceList/0/$ns3::CsmaNetDevice/MacRx ns3::EthernetHeader ( length/type=0x800, source=00:00:00:00:00:04, destination=00:00:00:00:00:01) ns3::Ipv4Header (tos 0x0 DSCP Default ECN Not-ECT ttl 64 id 0 protocol 6 offset (bytes) 0 flags [none] length: 56 192.168.1.4 > 192.168.1.1) ns3::TcpHeader (49153 > 8080 [SYN] Seq=0 Ack=0 Win=65535 ns3::TcpOptionTS(1000;0) ns3::TcpOptionWinScale(2) ns3::TcpOptionSackPermitted([sack_perm]) ns3::TcpOptionEnd(EOL)) ns3::EthernetTrailer (fcs=0)
r 1.00004 /NodeList/11/DeviceList/0/$ns3::CsmaNetDevice/MacRx ns3::EthernetHeader ( length/type=0x800, source=00:00:00:00:00:11, destination=00:00:00:00:00:0c) ns3::Ipv4Header (tos 0x0 DSCP Default ECN Not-ECT ttl 64 id 0 protocol 6 offset (bytes) 0 flags [none] length: 56 192.168.2.6 > 192.168.2.1) ns3::TcpHeader (49153 > 8080 [SYN] Seq=0 Ack=0 Win=65535 ns3::TcpOptionTS(1000;0) ns3::TcpOptionWinScale(2) ns3::TcpOptionSackPermitted([sack_perm]) ns3::TcpOptionEnd(EOL)) ns3::EthernetTrailer (fcs=0)
+ 1.001 /NodeList/8/DeviceList/0/$ns3::CsmaNetDevice/TxQueue/Enqueue ns3::EthernetHeader ( length/type=0x806, source=00:00:00:00:00:09, destination=ff:ff:ff:ff:ff:ff) ns3::ArpHeader (request source mac: 00-06-00:00:00:00:00:09 source ipv4: 192.168.1.9 dest ipv4: 192.168.1.1) Payload (size=18) ns3::EthernetTrailer (fcs=0)
- 1.001 /NodeList/8/DeviceList/0/$ns3::CsmaNetDevice/TxQueue/Dequeue ns3::EthernetHeader ( length/type=0x806, source=00:00:00:00:00:09, destination=ff:ff:ff:ff:ff:ff) ns3::ArpHeader (request source mac: 00-06-00:00:00:00:00:09 source ipv4: 192.168.1.9 dest ipv4: 192.168.1.1) Payload (size=18) ns3::EthernetTrailer (fcs=0)
+ 1.001 /NodeList/13/DeviceList/0/$ns3::CsmaNetDevice/TxQueue/Enqueue ns3::EthernetHeader ( length/type=0x806, source=00:00:00:00:00:0e, destination=ff:ff:ff:ff:ff:ff) ns3::ArpHeader (request source mac: 00-06-00:00:00:00:00:0e source ipv4: 192.168.2.3 dest ipv4: 192.168.2.1) Payload (size=18) ns3::EthernetTrailer (fcs=0)
- 1.001 /NodeList/13/DeviceList/0/$ns3::CsmaNetDevice/TxQueue/Dequeue ns3::EthernetHeader ( length/type=0x806, source=00:00:00:00:00:0e, destination=ff:ff:ff:ff:ff:ff) ns3::ArpHeader (request source mac: 00-06-00:00:00:00:00:0e source ipv4: 192.168.2.3 dest ipv4: 192.168.2.1) Payload (size=18) ns3::EthernetTrailer (fcs=0)
+ 1.001 /NodeList/20/DeviceList/0/$ns3::CsmaNetDevice/TxQueue/Enqueue ns3::EthernetHeader ( length/type=0x806, source=00:00:00:00:00:15, destination=ff:ff:ff:ff:ff:ff) ns3::ArpHeader (request source mac: 00-06-00:00:00:00:00:15 source ipv4: 192.168.2.10 dest ipv4: 192.168.2.1) Payload (size=18) ns3::EthernetTrailer (fcs=0)
- 1.001 /NodeList/20/DeviceList/0/$ns3::CsmaNetDevice/TxQueue/Dequeue ns3::EthernetHeader ( length/type=0x806, source=00:00:00:00:00:15, destination=ff:ff:ff:ff:ff:ff) ns3::ArpHeader (request source mac: 00-06-00:00:00:00:00:15 source ipv4: 192.168.2.10 dest ipv4: 192.168.2.1) Payload (size=18) ns3::EthernetTrailer (fcs=0)
r 1.00101 /NodeList/0/DeviceList/0/$ns3::CsmaNetDevice/MacRx ns3::EthernetHeader ( length/type=0x806, source=00:00:00:00:00:09, destination=ff:ff:ff:ff:ff:ff) ns3::ArpHeader (request source mac: 00-06-00:00:00:00:00:09 source ipv4: 192.168.1.9 dest ipv4: 192.168.1.1) Payload (size=18) ns3::EthernetTrailer (fcs=0)
+ 1.00101 /NodeList/0/DeviceList/0/$ns3::CsmaNetDevice/TxQueue/Enqueue ns3::EthernetHeader ( length/type=0x806, source=00:00:00:00:00:01, destination=00:00:00:00:00:09) ns3::ArpHeader (reply source mac: 00-06-00:00:00:00:00:01 source ipv4: 192.168.1.1 dest mac: 00-06-00:00:00:00:00:09 dest ipv4: 192.168.1.9) Payload (size=18) ns3::EthernetTrailer (fcs=0)
- 1.00101 /NodeList/0/DeviceList/0/$ns3::CsmaNetDevice/TxQueue/Dequeue ns3::EthernetHeader ( length/type=0x806, source=00:00:00:00:00:01, destination=00:00:00:00:00:09) ns3::ArpHeader (reply source mac: 00-06-00:00:00:00:00:01 source ipv4: 192.168.1.1 dest mac: 00-06-00:00:00:00:00:09 dest ipv4: 192.168.1.9) Payload (size=18) ns3::EthernetTrailer (fcs=0)
r 1.00101 /NodeList/1/DeviceList/0/$ns3::CsmaNetDevice/MacRx ns3::EthernetHeader ( length/type=0x806, source=00:00:00:00:00:09, destination=ff:ff:ff:ff:ff:ff) ns3::ArpHeader (request source mac: 00-06-00:00:00:00:00:09 source ipv4: 192.168.1.9 dest ipv4: 192.168.1.1) Payload (size=18) ns3::EthernetTrailer (fcs=0)
r 1.00101 /NodeList/2/DeviceList/0/$ns3::CsmaNetDevice/MacRx ns3::EthernetHeader ( length/type=0x806, source=00:00:00:00:00:09, destination=ff:ff:ff:ff:ff:ff) ns3::ArpHeader (request source mac: 00-06-00:00:00:00:00:09 source ipv4: 192.168.1.9 dest ipv4: 192.168.1.1) Payload (size=18) ns3::EthernetTrailer (fcs=0)
r 1.00101 /NodeList/3/DeviceList/0/$ns3::CsmaNetDevice/MacRx ns3::EthernetHeader ( length/type=0x806, source=00:00:00:00:00:09, destination=ff:ff:ff:ff:ff:ff) ns3::ArpHeader (request source mac: 00-06-00:00:00:00:00:09 source ipv4: 192.168.1.9 dest ipv4: 192.168.1.1) Payload (size=18) ns3::EthernetTrailer (fcs=0)
r 1.00101 /NodeList/4/DeviceList/0/$ns3::CsmaNetDevice/MacRx ns3::EthernetHeader ( length/type=0x806, source=00:00:00:00:00:09, destination=ff:ff:ff:ff:ff:ff) ns3::ArpHeader (request source mac: 00-06-00:00:00:00:00:09 source ipv4: 192.168.1.9 dest ipv4: 192.168.1.1) Payload (size=18) ns3::EthernetTrailer (fcs=0)
r 1.00101 /NodeList/5/DeviceList/0/$ns3::CsmaNetDevice/MacRx ns3::EthernetHeader ( length/type=0x806, source=00:00:00:00:00:09, destination=ff:ff:ff:ff:ff:ff) ns3::ArpHeader (request source mac: 00-06-00:00:00:00:00:09 source ipv4: 192.168.1.9 dest ipv4: 192.168.1.1) Payload (size=18) ns3::EthernetTrailer (fcs=0)
r 1.00101 /NodeList/6/DeviceList/0/$ns3::CsmaNetDevice/MacRx ns3::EthernetHeader ( length/type=0x806, source=00:00:00:00:00:09, destination=ff:ff:ff:ff:ff:ff) ns3::ArpHeader (request source mac: 00-06-00:00:00:00:00:09 source ipv4: 192.168.1.9 dest ipv4: 192.168.1.1) Payload (size=18) ns3::EthernetTrailer (fcs=0)
r 1.00101 /NodeList/7/DeviceList/0/$ns3::CsmaNetDevice/MacRx ns3::EthernetHeader ( length/type=0x806, source=00:00:00:00:00:09, destination=ff:ff:ff:ff:ff:ff) ns3::ArpHeader (request source mac: 00-06-00:00:00:00:00:09 source ipv4: 192.168.1.9 dest ipv4: 192.168.1.1) Payload (size=18) ns3::EthernetTrailer (fcs=0)
r 1.00101 /NodeList/9/DeviceList/0/$ns3::CsmaNetDevice/MacRx ns3::EthernetHeader ( length/type=0x806, source=00:00:00:00:00:09, destination=ff:ff:ff:ff:ff:ff) ns3::ArpHeader (request source mac: 00-06-00:00:00:00:00:09 source ipv4: 192.168.1.9 dest ipv4: 192.168.1.1) Payload (size=18) ns3::EthernetTrailer (fcs=0)
r 1.00101 /NodeList/10/DeviceList/0/$ns3::CsmaNetDevice/MacRx ns3::EthernetHeader ( length/type=0x806, source=00:00:00:00:00:09, destination=ff:ff:ff:ff:ff:ff) ns3::ArpHeader (request source mac: 00-06-00:00:00:00:00:09 source ipv4: 192.168.1.9 dest ipv4: 192.168.1.1) Payload (size=18) ns3::EthernetTrailer (fcs=0)
r 1.00101 /NodeList/11/DeviceList/0/$ns3::CsmaNetDevice/MacRx ns3::EthernetHeader ( length/type=0x806, source=00:00:00:00:00:0e, destination=ff:ff:ff:ff:ff:ff) ns3::ArpHeader (request source mac: 00-06-00:00:00:00:00:0e source ipv4: 192.168.2.3 dest ipv4: 192.168.2.1) Payload (size=18) ns3::EthernetTrailer (fcs=0)
+ 1.00101 /NodeList/11/DeviceList/0/$ns3::CsmaNetDevice/TxQueue/Enqueue ns3::EthernetHeader ( length/type=0x806, source=00:00:00:00:00:0c, destination=00:00:00:00:00:0e) ns3::ArpHeader (reply source mac: 00-06-00:00:00:00:00:0c source ipv4: 192.168.2.1 dest mac: 00-06-00:00:00:00:00:0e dest ipv4: 192.168.2.3) Payload (size=18) ns3::EthernetTrailer (fcs=0)
- 1.00101 /NodeList/11/DeviceList/0/$ns3::CsmaNetDevice/TxQueue/Dequeue ns3::EthernetHeader ( length/type=0x806, source=00:00:00:00:00:0c, destination=00:00:00:00:00:0e) ns3::ArpHeader (reply source mac: 00-06-00:00:00:00:00:0c source ipv4: 192.168.2.1 dest mac: 00-06-00:00:00:00:00:0e dest ipv4: 192.168.2.3) Payload (size=18) ns3::EthernetTrailer (fcs=0)
r 1.00101 /NodeList/12/DeviceList/0/$ns3::CsmaNetDevice/MacRx ns3::EthernetHeader ( length/type=0x806, source=00:00:00:00:00:0e, destination=ff:ff:ff:ff:ff:ff) ns3::ArpHeader (request source mac: 00-06-00:00:00:00:00:0e source ipv4: 192.168.2.3 dest ipv4: 192.168.2.1) Payload (size=18) ns3::EthernetTrailer (fcs=0)
r 1.00101 /NodeList/14/DeviceList/0/$ns3::CsmaNetDevice/MacRx ns3::EthernetHeader ( length/type=0x806, source=00:00:00:00:00:0e, destination=ff:ff:ff:ff:ff:ff) ns3::ArpHeader (request source mac: 00-06-00:00:00:00:00:0e source ipv4: 192.168.2.3 dest ipv4: 192.168.2.1) Payload (size=18) ns3::EthernetTrailer (fcs=0)
r 1.00101 /NodeList/15/DeviceList/0/$ns3::CsmaNetDevice/MacRx ns3::EthernetHeader ( length/type=0x806, source=00:00:00:00:00:0e, destination=ff:ff:ff:ff:ff:ff) ns3::ArpHeader (request source mac: 00-06-00:00:00:00:00:0e source ipv4: 192.168.2.3 dest ipv4: 192.168.2.1) Payload (size=18) ns3::EthernetTrailer (fcs=0)
r 1.00101 /NodeList/16/DeviceList/0/$ns3::CsmaNetDevice/MacRx ns3::EthernetHeader ( length/type=0x806, source=00:00:00:00:00:0e, destination=ff:ff:ff:ff:ff:ff) ns3::ArpHeader (request source mac: 00-06-00:00:00:00:00:0e source ipv4: 192.168.2.3 dest ipv4: 192.168.2.1) Payload (size=18) ns3::EthernetTrailer (fcs=0)
r 1.00101 /NodeList/17/DeviceList/0/$ns3::CsmaNetDevice/MacRx ns3::EthernetHeader ( length/type=0x806, source=00:00:00:00:00:0e, destination=ff:ff:ff:ff:ff:ff) ns3::ArpHeader (request source mac: 00-06-00:00:00:00:00:0e source ipv4: 192.168.2.3 dest ipv4: 192.168.2.1) Payload (size=18) ns3::EthernetTrailer (fcs=0)
r 1.00101 /NodeList/18/DeviceList/0/$ns3::CsmaNetDevice/MacRx ns3::EthernetHeader ( length/type=0x806, source=00:00:00:00:00:0e, destination=ff:ff:ff:ff:ff:ff) ns3::ArpHeader (request source mac: 00-06-00:00:00:00:00:0e source ipv4: 192.168.2.3 dest ipv4: 192.168.2.1) Payload (size=18) ns3::EthernetTrailer (fcs=0)
r 1.00101 /NodeList/19/DeviceList/0/$ns3::CsmaNetDevice/MacRx ns3::EthernetHeader ( length/type=0x806, source=00:00:00:00:00:0e, destination=ff:ff:ff:ff:ff:ff) ns3::ArpHeader (request source mac: 00-06-00:00:00:00:00:0e source ipv4: 192.168.2.3 dest ipv4: 192.168.2.1) Payload (size=18) ns3::EthernetTrailer (fcs=0)
r 1.00101 /NodeList/20/DeviceList/0/$ns3::CsmaNetDevice/MacRx ns3::EthernetHeader ( length/type=0x806, source=00:00:00:00:00:0e, destination=ff:ff:ff:ff:ff:ff) ns3::ArpHeader (request source mac: 00-06-00:00:00:00:00:0e source ipv4: 192.168.2.3 dest ipv4: 192.168.2.1) Payload (size=18) ns3::EthernetTrailer (fcs=0)
r 1.00101 /NodeList/21/DeviceList/0/$ns3::CsmaNetDevice/MacRx ns3::EthernetHeader ( length/type=0x806, source=00:00:00:00:00:0e, destination=ff:ff:ff:ff:ff:ff) ns3::ArpHeader (request source mac: 00-06-00:00:00:00:00:0e source ipv4: 192.168.2.3 dest ipv4: 192.168.2.1) Payload (size=18) ns3::EthernetTrailer (fcs=0)
r 1.00102 /NodeList/8/DeviceList/0/$ns3::CsmaNetDevice/MacRx ns3::EthernetHeader ( length/type=0x806, source=00:00:00:00:00:01, destination=00:00:00:00:00:09) ns3::ArpHeader (reply source mac: 00-06-00:00:00:00:00:01 source ipv4: 192.168.1.1 dest mac: 00-06-00:00:00:00:00:09 dest ipv4: 192.168.1.9) Payload (size=18) ns3::EthernetTrailer (fcs=0)
+ 1.00102 /NodeList/8/DeviceList/0/$ns3::CsmaNetDevice/TxQueue/Enqueue ns3::EthernetHeader ( length/type=0x800, source=00:00:00:00:00:09, destination=00:00:00:00:00:01) ns3::Ipv4Header (tos 0x0 DSCP Default ECN Not-ECT ttl 64 id 0 protocol 6 offset (bytes) 0 flags [none] length: 56 192.168.1.9 > 192.168.1.1) ns3::TcpHeader (49153 > 8080 [SYN] Seq=0 Ack=0 Win=65535 ns3::TcpOptionTS(1000;0) ns3::TcpOptionWinScale(2) ns3::TcpOptionSackPermitted([sack_perm]) ns3::TcpOptionEnd(EOL)) ns3::EthernetTrailer (fcs=0)
- 1.00102 /NodeList/8/DeviceList/0/$ns3::CsmaNetDevice/TxQueue/Dequeue ns3::EthernetHeader ( length/type=0x800, source=00:00:00:00:00:09, destination=00:00:00:00:00:01) ns3::Ipv4Header (tos 0x0 DSCP Default ECN Not-ECT ttl 64 id 0 protocol 6 offset (bytes) 0 flags [none] length: 56 192.168.1.9 > 192.168.1.1) ns3::TcpHeader (49153 > 8080 [SYN] Seq=0 Ack=0 Win=65535 ns3::TcpOptionTS(1000;0) ns3::TcpOptionWinScale(2) ns3::TcpOptionSackPermitted([sack_perm]) ns3::TcpOptionEnd(EOL)) ns3::EthernetTrailer (fcs=0)
r 1.00102 /NodeList/13/DeviceList/0/$ns3::CsmaNetDevice/MacRx ns3::EthernetHeader ( length/type=0x806, source=00:00:00:00:00:0c, destination=00:00:00:00:00:0e) ns3::ArpHeader (reply source mac: 00-06-00:00:00:00:00:0c source ipv4: 192.168.2.1 dest mac: 00-06-00:00:00:00:00:0e dest ipv4: 192.168.2.3) Payload (size=18) ns3::EthernetTrailer (fcs=0)
+ 1.00102 /NodeList/13/DeviceList/0/$ns3::CsmaNetDevice/TxQueue/Enqueue ns3::EthernetHeader ( length/type=0x800, source=00:00:00:00:00:0e, destination=00:00:00:00:00:0c) ns3::Ipv4Header (tos 0x0 DSCP Default ECN Not-ECT ttl 64 id 0 protocol 6 offset (bytes) 0 flags [none] length: 56 192.168.2.3 > 192.168.2.1) ns3::TcpHeader (49153 > 8080 [SYN] Seq=0 Ack=0 Win=65535 ns3::TcpOptionTS(1000;0) ns3::TcpOptionWinScale(2) ns3::TcpOptionSackPermitted([sack_perm]) ns3::TcpOptionEnd(EOL)) ns3::EthernetTrailer (fcs=0)
- 1.00102 /NodeList/13/DeviceList/0/$ns3::CsmaNetDevice/TxQueue/Dequeue ns3::EthernetHeader ( length/type=0x800, source=00:00:00:00:00:0e, destination=00:00:00:00:00:0c) ns3::Ipv4Header (tos 0x0 DSCP Default ECN Not-ECT ttl 64 id 0 protocol 6 offset (bytes) 0 flags [none] length: 56 192.168.2.3 > 192.168.2.1) ns3::TcpHeader (49153 > 8080 [SYN] Seq=0 Ack=0 Win=65535 ns3::TcpOptionTS(1000;0) ns3::TcpOptionWinScale(2) ns3::TcpOptionSackPermitted([sack_perm]) ns3::TcpOptionEnd(EOL)) ns3::EthernetTrailer (fcs=0)
r 1.00104 /NodeList/0/DeviceList/0/$ns3::CsmaNetDevice/MacRx ns3::EthernetHeader ( length/type=0x800, source=00:00:00:00:00:09, destination=00:00:00:00:00:01) ns3::Ipv4Header (tos 0x0 DSCP Default ECN Not-ECT ttl 64 id 0 protocol 6 offset (bytes) 0 flags [none] length: 56 192.168.1.9 > 192.168.1.1) ns3::TcpHeader (49153 > 8080 [SYN] Seq=0 Ack=0 Win=65535 ns3::TcpOptionTS(1000;0) ns3::TcpOptionWinScale(2) ns3::TcpOptionSackPermitted([sack_perm]) ns3::TcpOptionEnd(EOL)) ns3::EthernetTrailer (fcs=0)
r 1.00104 /NodeList/11/DeviceList/0/$ns3::CsmaNetDevice/MacRx ns3::EthernetHeader ( length/type=0x800, source=00:00:00:00:00:0e, destination=00:00:00:00:00:0c) ns3::Ipv4Header (tos 0x0 DSCP Default ECN Not-ECT ttl 64 id 0 protocol 6 offset (bytes) 0 flags [none] length: 56 192.168.2.3 > 192.168.2.1) ns3::TcpHeader (49153 > 8080 [SYN] Seq=0 Ack=0 Win=65535 ns3::TcpOptionTS(1000;0) ns3::TcpOptionWinScale(2) ns3::TcpOptionSackPermitted([sack_perm]) ns3::TcpOptionEnd(EOL)) ns3::EthernetTrailer (fcs=0)
r 1.00107 /NodeList/11/DeviceList/0/$ns3::CsmaNetDevice/MacRx ns3::EthernetHeader ( length/type=0x806, source=00:00:00:00:00:15, destination=ff:ff:ff:ff:ff:ff) ns3::ArpHeader (request source mac: 00-06-00:00:00:00:00:15 source ipv4: 192.168.2.10 dest ipv4: 192.168.2.1) Payload (size=18) ns3::EthernetTrailer (fcs=0)
+ 1.00107 /NodeList/11/DeviceList/0/$ns3::CsmaNetDevice/TxQueue/Enqueue ns3::EthernetHeader ( length/type=0x806, source=00:00:00:00:00:0c, destination=00:00:00:00:00:15) ns3::ArpHeader (reply source mac: 00-06-00:00:00:00:00:0c source ipv4: 192.168.2.1 dest mac: 00-06-00:00:00:00:00:15 dest ipv4: 192.168.2.10) Payload (size=18) ns3::EthernetTrailer (fcs=0)
- 1.00107 /NodeList/11/DeviceList/0/$ns3::CsmaNetDevice/TxQueue/Dequeue ns3::EthernetHeader ( length/type=0x806, source=00:00:00:00:00:0c, destination=00:00:00:00:00:15) ns3::ArpHeader (reply source mac: 00-06-00:00:00:00:00:0c source ipv4: 192.168.2.1 dest mac: 00-06-00:00:00:00:00:15 dest ipv4: 192.168.2.10) Payload (size=18) ns3::EthernetTrailer (fcs=0)
r 1.00107 /NodeList/12/DeviceList/0/$ns3::CsmaNetDevice/MacRx ns3::EthernetHeader ( length/type=0x806, source=00:00:00:00:00:15, destination=ff:ff:ff:ff:ff:ff) ns3::ArpHeader (request source mac: 00-06-00:00:00:00:00:15 source ipv4: 192.168.2.10 dest ipv4: 192.168.2.1) Payload (size=18) ns3::EthernetTrailer (fcs=0)
r 1.00107 /NodeList/13/DeviceList/0/$ns3::CsmaNetDevice/MacRx ns3::EthernetHeader ( length/type=0x806, source=00:00:00:00:00:15, destination=ff:ff:ff:ff:ff:ff) ns3::ArpHeader (request source mac: 00-06-00:00:00:00:00:15 source ipv4: 192.168.2.10 dest ipv4: 192.168.2.1) Payload (size=18) ns3::EthernetTrailer (fcs=0)
r 1.00107 /NodeList/14/DeviceList/0/$ns3::CsmaNetDevice/MacRx ns3::EthernetHeader ( length/type=0x806, source=00:00:00:00:00:15, destination=ff:ff:ff:ff:ff:ff) ns3::ArpHeader (request source mac: 00-06-00:00:00:00:00:15 source ipv4: 192.168.2.10 dest ipv4: 192.168.2.1) Payload (size=18) ns3::EthernetTrailer (fcs=0)
r 1.00107 /NodeList/15/DeviceList/0/$ns3::CsmaNetDevice/MacRx ns3::EthernetHeader ( length/type=0x806, source=00:00:00:00:00:15, destination=ff:ff:ff:ff:ff:ff) ns3::ArpHeader (request source mac: 00-06-00:00:00:00:00:15 source ipv4: 192.168.2.10 dest ipv4: 192.168.2.1) Payload (size=18) ns3::EthernetTrailer (fcs=0)
r 1.00107 /NodeList/16/DeviceList/0/$ns3::CsmaNetDevice/MacRx ns3::EthernetHeader ( length/type=0x806, source=00:00:00:00:00:15, destination=ff:ff:ff:ff:ff:ff) ns3::ArpHeader (request source mac: 00-06-00:00:00:00:00:15 source ipv4: 192.168.2.10 dest ipv4: 192.168.2.1) Payload (size=18) ns3::EthernetTrailer (fcs=0)
r 1.00107 /NodeList/17/DeviceList/0/$ns3::CsmaNetDevice/MacRx ns3::EthernetHeader ( length/type=0x806, source=00:00:00:00:00:15, destination=ff:ff:ff:ff:ff:ff) ns3::ArpHeader (request source mac: 00-06-00:00:00:00:00:15 source ipv4: 192.168.2.10 dest ipv4: 192.168.2.1) Payload (size=18) ns3::EthernetTrailer (fcs=0)
r 1.00107 /NodeList/18/DeviceList/0/$ns3::CsmaNetDevice/MacRx ns3::EthernetHeader ( length/type=0x806, source=00:00:00:00:00:15, destination=ff:ff:ff:ff:ff:ff) ns3::ArpHeader (request source mac: 00-06-00:00:00:00:00:15 source ipv4: 192.168.2.10 dest ipv4: 192.168.2.1) Payload (size=18) ns3::EthernetTrailer (fcs=0)
r 1.00107 /NodeList/19/DeviceList/0/$ns3::CsmaNetDevice/MacRx ns3::EthernetHeader ( length/type=0x806, source=00:00:00:00:00:15, destination=ff:ff:ff:ff:ff:ff) ns3::ArpHeader (request source mac: 00-06-00:00:00:00:00:15 source ipv4: 192.168.2.10 dest ipv4: 192.168.2.1) Payload (size=18) ns3::EthernetTrailer (fcs=0)